% Model:              model_s.mph
% Version:            COMSOL 5.2.1.152
% Date:               Nov 19 2021, 16:27
% Dimension:          1
% Nodes:              803
% Expressions:        1
% Description:        Line graph
% x             Height
0.0000          NaN
0.20000         NaN
0.40000         NaN
0.60000         NaN
0.80000         NaN
1.0000          NaN
1.2000          NaN
1.4000          NaN
1.6000          NaN
1.8000          NaN
2.0000          NaN
2.2000          NaN
2.4000          NaN
2.6000          NaN
2.8000          NaN
3.0000          NaN
3.2000          NaN
3.4000          NaN
3.6000          NaN
3.8000          NaN
4.0000          NaN
4.2000          NaN
4.4000          NaN
4.6000          NaN
4.8000          NaN
5.0000          NaN
5.2000          NaN
5.4000          NaN
5.6000          NaN
5.8000          NaN
6.0000          NaN
6.2000          NaN
6.4000          NaN
6.6000          NaN
6.8000          NaN
7.0000          NaN
7.2000          NaN
7.4000          NaN
7.6000          NaN
7.8000          NaN
8.0000          NaN
8.2000          NaN
8.4000          NaN
8.6000          NaN
8.8000          NaN
9.0000          NaN
9.2000          NaN
9.4000          NaN
9.6000          NaN
9.8000          NaN
10.000          NaN
10.200          NaN
10.400          NaN
10.600          NaN
10.800          NaN
11.000          NaN
11.200          NaN
11.400          NaN
11.600          NaN
11.800          NaN
12.000          NaN
12.200          NaN
12.400          NaN
12.600          NaN
12.800          NaN
13.000          NaN
13.200          NaN
13.400          NaN
13.600          NaN
13.800          NaN
14.000          NaN
14.200          NaN
14.400          NaN
14.600          NaN
14.800          NaN
15.000          NaN
15.200          NaN
15.400          NaN
15.600          NaN
15.800          NaN
16.000          NaN
16.200          NaN
16.400          NaN
16.600          NaN
16.800          NaN
17.000          NaN
17.200          NaN
17.400          NaN
17.600          NaN
17.800          NaN
18.000          NaN
18.200          NaN
18.400          NaN
18.600          NaN
18.800          NaN
19.000          NaN
19.200          NaN
19.400          NaN
19.600          NaN
19.800          NaN
20.000          NaN
20.000          -5.4498E-13
20.200          1.3899E-11
20.400          2.8343E-11
20.600          4.2786E-11
20.800          5.7230E-11
21.000          7.1674E-11
21.200          8.8303E-11
21.400          1.0615E-10
21.600          1.2400E-10
21.800          1.4184E-10
22.000          1.5969E-10
22.200          1.8351E-10
22.400          2.0897E-10
22.600          2.3443E-10
22.800          2.5988E-10
23.000          2.8534E-10
23.200          3.2196E-10
23.400          3.6103E-10
23.600          4.0010E-10
23.800          4.3916E-10
24.000          4.7823E-10
24.200          5.3628E-10
24.400          5.9816E-10
24.600          6.6004E-10
24.800          7.2191E-10
25.000          7.8379E-10
25.200          8.7697E-10
25.400          9.7624E-10
25.600          1.0755E-9
25.800          1.1748E-9
26.000          1.2740E-9
26.200          1.4243E-9
26.400          1.5843E-9
26.600          1.7444E-9
26.800          1.9044E-9
27.000          2.0645E-9
27.200          2.3072E-9
27.400          2.5658E-9
27.600          2.8243E-9
27.800          3.0829E-9
28.000          3.3414E-9
28.200          3.7338E-9
28.400          4.1518E-9
28.600          4.5697E-9
28.800          4.9877E-9
29.000          5.4057E-9
29.200          6.0402E-9
29.400          6.7161E-9
29.600          7.3919E-9
29.800          8.0678E-9
30.000          8.7437E-9
30.200          9.7698E-9
30.400          1.0863E-8
30.600          1.1956E-8
30.800          1.3049E-8
31.000          1.4142E-8
31.200          1.5802E-8
31.400          1.7569E-8
31.600          1.9337E-8
31.800          2.1105E-8
32.000          2.2873E-8
32.200          2.5557E-8
32.400          2.8416E-8
32.600          3.1275E-8
32.800          3.4134E-8
33.000          3.6993E-8
33.200          4.1334E-8
33.400          4.5958E-8
33.600          5.0581E-8
33.800          5.5205E-8
34.000          5.9829E-8
34.200          6.6850E-8
34.400          7.4328E-8
34.600          8.1807E-8
34.800          8.9285E-8
35.000          9.6763E-8
35.200          1.0812E-7
35.400          1.2021E-7
35.600          1.3231E-7
35.800          1.4440E-7
36.000          1.5590E-7
36.200          1.7486E-7
36.400          1.9442E-7
36.600          2.1399E-7
36.800          2.3355E-7
37.000          2.5311E-7
37.200          2.8281E-7
37.400          3.1445E-7
37.600          3.4609E-7
37.800          3.7772E-7
38.000          4.0779E-7
38.200          4.5740E-7
38.400          5.0857E-7
38.600          5.5973E-7
38.800          6.1090E-7
39.000          6.5954E-7
39.200          7.3976E-7
39.400          8.2252E-7
39.600          9.0527E-7
39.800          9.8803E-7
40.000          1.0667E-6
40.200          1.1964E-6
40.400          1.3303E-6
40.600          1.4641E-6
40.800          1.5980E-6
41.000          1.7252E-6
41.200          1.9350E-6
41.400          2.1515E-6
41.600          2.3680E-6
41.800          2.5844E-6
42.000          2.7902E-6
42.200          3.1296E-6
42.400          3.4797E-6
42.600          3.8298E-6
42.800          4.1799E-6
43.000          4.5126E-6
43.200          5.0615E-6
43.400          5.6278E-6
43.600          6.1940E-6
43.800          6.7602E-6
44.000          7.2984E-6
44.200          8.1862E-6
44.400          9.1019E-6
44.600          1.0018E-5
44.800          1.0933E-5
45.000          1.1804E-5
45.200          1.3240E-5
45.400          1.4721E-5
45.600          1.6202E-5
45.800          1.7683E-5
46.000          1.9091E-5
46.200          2.1413E-5
46.400          2.3808E-5
46.600          2.6204E-5
46.800          2.8599E-5
47.000          3.0876E-5
47.200          3.4632E-5
47.400          3.8506E-5
47.600          4.2380E-5
47.800          4.6254E-5
48.000          4.9937E-5
48.200          5.6011E-5
48.400          6.2277E-5
48.600          6.8542E-5
48.800          7.4808E-5
49.000          8.0764E-5
49.200          9.0588E-5
49.400          1.0072E-4
49.600          1.1086E-4
49.800          1.2099E-4
50.000          1.3062E-4
50.200          1.4651E-4
50.400          1.6290E-4
50.600          1.7929E-4
50.800          1.9568E-4
51.000          2.1126E-4
51.200          2.3695E-4
51.400          2.6346E-4
51.600          2.8997E-4
51.800          3.1648E-4
52.000          3.4167E-4
52.200          3.8323E-4
52.400          4.2610E-4
52.600          4.6898E-4
52.800          5.1185E-4
53.000          5.5260E-4
53.200          6.1981E-4
53.400          6.8915E-4
53.600          7.5849E-4
53.800          8.2782E-4
54.000          8.9373E-4
54.200          0.0010024
54.400          0.0011146
54.600          0.0012267
54.800          0.0013389
55.000          0.0014455
55.200          0.0016213
55.400          0.0018026
55.600          0.0019840
55.800          0.0021654
56.000          0.0023378
56.200          0.0026221
56.400          0.0029155
56.600          0.0032088
56.800          0.0035021
57.000          0.0037809
57.200          0.0042408
57.400          0.0047153
57.600          0.0051897
57.800          0.0056641
58.000          0.0061150
58.200          0.0068588
58.400          0.0076261
58.600          0.0083934
58.800          0.0091607
59.000          0.0098900
59.200          0.011093
59.400          0.012334
59.600          0.013575
59.800          0.014816
60.000          0.015995
60.200          0.017941
60.400          0.019948
60.600          0.021955
60.800          0.023962
61.000          0.025870
61.200          0.029016
61.400          0.032262
61.600          0.035508
61.800          0.038754
62.000          0.041840
62.200          0.046929
62.400          0.052179
62.600          0.057429
62.800          0.062679
63.000          0.067669
63.200          0.075900
63.400          0.084390
63.600          0.092881
63.800          0.10137
64.000          0.10944
64.200          0.12275
64.400          0.13649
64.600          0.15022
64.800          0.16395
65.000          0.17700
65.200          0.19853
65.400          0.22074
65.600          0.24295
65.800          0.26516
66.000          0.28627
66.200          0.32109
66.400          0.35701
66.600          0.39293
66.800          0.42885
67.000          0.46300
67.200          0.51932
67.400          0.57741
67.600          0.63550
67.800          0.69360
68.000          0.74882
68.200          0.83990
68.400          0.93386
68.600          1.0278
68.800          1.1218
69.000          0.93809
69.200          0.59294
69.400          0.52544
69.600          0.45794
69.800          0.39043
70.000          0.36155
70.200          0.53167
70.400          0.66317
70.600          0.79468
70.800          0.92618
71.000          1.0582
71.200          1.1855
71.400          1.3124
71.600          1.4393
71.800          1.5661
72.000          1.6934
72.200          1.8134
72.400          1.9328
72.600          2.0523
72.800          2.1717
73.000          2.2916
73.200          2.4015
73.400          2.5109
73.600          2.6203
73.800          2.7297
74.000          2.8395
74.200          2.9369
74.400          3.0339
74.600          3.1309
74.800          3.2279
75.000          3.3252
75.200          3.4080
75.400          3.4904
75.600          3.5728
75.800          3.6553
76.000          3.7380
76.200          3.8043
76.400          3.8704
76.600          3.9365
76.800          4.0025
77.000          4.0688
77.200          4.1173
77.400          4.1655
77.600          4.2138
77.800          4.2620
78.000          4.3104
78.200          4.3400
78.400          4.3693
78.600          4.3987
78.800          4.4281
79.000          4.4576
79.200          4.4675
79.400          4.4774
79.600          4.4872
79.800          4.4971
80.000          4.5070
80.200          4.4971
80.400          4.4872
80.600          4.4774
80.800          4.4675
81.000          4.4576
81.200          4.4281
81.400          4.3987
81.600          4.3693
81.800          4.3400
82.000          4.3104
82.200          4.2620
82.400          4.2138
82.600          4.1655
82.800          4.1173
83.000          4.0688
83.200          4.0025
83.400          3.9365
83.600          3.8704
83.800          3.8043
84.000          3.7380
84.200          3.6553
84.400          3.5728
84.600          3.4904
84.800          3.4080
85.000          3.3252
85.200          3.2279
85.400          3.1309
85.600          3.0339
85.800          2.9369
86.000          2.8395
86.200          2.7297
86.400          2.6203
86.600          2.5109
86.800          2.4015
87.000          2.2916
87.200          2.1717
87.400          2.0523
87.600          1.9328
87.800          1.8134
88.000          1.6934
88.200          1.5661
88.400          1.4393
88.600          1.3124
88.800          1.1855
89.000          1.0582
89.200          0.92618
89.400          0.79468
89.600          0.66317
89.800          0.53167
90.000          0.36155
90.200          0.39043
90.400          0.45794
90.600          0.52544
90.800          0.59294
91.000          0.93809
91.200          1.1218
91.400          1.0278
91.600          0.93386
91.800          0.83990
92.000          0.74882
92.200          0.69360
92.400          0.63550
92.600          0.57741
92.800          0.51932
93.000          0.46300
93.200          0.42885
93.400          0.39293
93.600          0.35701
93.800          0.32109
94.000          0.28627
94.200          0.26516
94.400          0.24295
94.600          0.22074
94.800          0.19853
95.000          0.17700
95.200          0.16395
95.400          0.15022
95.600          0.13649
95.800          0.12275
96.000          0.10944
96.200          0.10137
96.400          0.092881
96.600          0.084390
96.800          0.075900
97.000          0.067669
97.200          0.062679
97.400          0.057429
97.600          0.052179
97.800          0.046929
98.000          0.041840
98.200          0.038754
98.400          0.035508
98.600          0.032262
98.800          0.029016
99.000          0.025870
99.200          0.023962
99.400          0.021955
99.600          0.019948
99.800          0.017941
100.00          0.015995
100.20          0.014816
100.40          0.013575
100.60          0.012334
100.80          0.011093
101.00          0.0098900
101.20          0.0091607
101.40          0.0083934
101.60          0.0076261
101.80          0.0068588
102.00          0.0061150
102.20          0.0056641
102.40          0.0051897
102.60          0.0047153
102.80          0.0042408
103.00          0.0037809
103.20          0.0035021
103.40          0.0032088
103.60          0.0029155
103.80          0.0026221
104.00          0.0023378
104.20          0.0021654
104.40          0.0019840
104.60          0.0018026
104.80          0.0016213
105.00          0.0014455
105.20          0.0013389
105.40          0.0012267
105.60          0.0011146
105.80          0.0010024
106.00          8.9373E-4
106.20          8.2782E-4
106.40          7.5849E-4
106.60          6.8915E-4
106.80          6.1981E-4
107.00          5.5260E-4
107.20          5.1185E-4
107.40          4.6898E-4
107.60          4.2610E-4
107.80          3.8323E-4
108.00          3.4167E-4
108.20          3.1648E-4
108.40          2.8997E-4
108.60          2.6346E-4
108.80          2.3695E-4
109.00          2.1126E-4
109.20          1.9568E-4
109.40          1.7929E-4
109.60          1.6290E-4
109.80          1.4651E-4
110.00          1.3062E-4
110.20          1.2099E-4
110.40          1.1086E-4
110.60          1.0072E-4
110.80          9.0588E-5
111.00          8.0764E-5
111.20          7.4808E-5
111.40          6.8542E-5
111.60          6.2277E-5
111.80          5.6011E-5
112.00          4.9937E-5
112.20          4.6254E-5
112.40          4.2380E-5
112.60          3.8506E-5
112.80          3.4632E-5
113.00          3.0876E-5
113.20          2.8599E-5
113.40          2.6204E-5
113.60          2.3808E-5
113.80          2.1413E-5
114.00          1.9091E-5
114.20          1.7683E-5
114.40          1.6202E-5
114.60          1.4721E-5
114.80          1.3240E-5
115.00          1.1804E-5
115.20          1.0933E-5
115.40          1.0018E-5
115.60          9.1019E-6
115.80          8.1862E-6
116.00          7.2984E-6
116.20          6.7602E-6
116.40          6.1940E-6
116.60          5.6278E-6
116.80          5.0615E-6
117.00          4.5126E-6
117.20          4.1799E-6
117.40          3.8298E-6
117.60          3.4797E-6
117.80          3.1296E-6
118.00          2.7902E-6
118.20          2.5844E-6
118.40          2.3680E-6
118.60          2.1515E-6
118.80          1.9350E-6
119.00          1.7252E-6
119.20          1.5980E-6
119.40          1.4641E-6
119.60          1.3303E-6
119.80          1.1964E-6
120.00          1.0667E-6
120.20          9.8803E-7
120.40          9.0527E-7
120.60          8.2252E-7
120.80          7.3976E-7
121.00          6.5954E-7
121.20          6.1090E-7
121.40          5.5973E-7
121.60          5.0857E-7
121.80          4.5740E-7
122.00          4.0779E-7
122.20          3.7772E-7
122.40          3.4609E-7
122.60          3.1445E-7
122.80          2.8281E-7
123.00          2.5117E-7
123.20          2.3355E-7
123.40          2.1399E-7
123.60          1.9442E-7
123.80          1.7486E-7
124.00          1.5590E-7
124.20          1.4440E-7
124.40          1.3231E-7
124.60          1.2021E-7
124.80          1.0812E-7
125.00          9.6024E-8
125.20          8.9285E-8
125.40          8.1807E-8
125.60          7.4328E-8
125.80          6.6850E-8
126.00          5.9372E-8
126.20          5.5205E-8
126.40          5.0581E-8
126.60          4.5958E-8
126.80          4.1334E-8
127.00          3.6710E-8
127.20          3.4134E-8
127.40          3.1275E-8
127.60          2.8416E-8
127.80          2.5557E-8
128.00          2.2698E-8
128.20          2.1105E-8
128.40          1.9337E-8
128.60          1.7569E-8
128.80          1.5802E-8
129.00          1.4034E-8
129.20          1.3049E-8
129.40          1.1956E-8
129.60          1.0863E-8
129.80          9.7698E-9
130.00          8.6768E-9
130.20          8.0678E-9
130.40          7.3919E-9
130.60          6.7161E-9
130.80          6.0402E-9
131.00          5.3643E-9
131.20          4.9877E-9
131.40          4.5697E-9
131.60          4.1518E-9
131.80          3.7338E-9
132.00          3.3158E-9
132.20          3.0829E-9
132.40          2.8243E-9
132.60          2.5658E-9
132.80          2.3072E-9
133.00          2.0487E-9
133.20          1.9044E-9
133.40          1.7444E-9
133.60          1.5843E-9
133.80          1.4243E-9
134.00          1.2642E-9
134.20          1.1748E-9
134.40          1.0755E-9
134.60          9.7624E-10
134.80          8.7697E-10
135.00          7.7770E-10
135.20          7.2191E-10
135.40          6.6004E-10
135.60          5.9816E-10
135.80          5.3629E-10
136.00          4.7441E-10
136.20          4.3916E-10
136.40          4.0009E-10
136.60          3.6103E-10
136.80          3.2197E-10
137.00          2.8290E-10
137.20          2.5988E-10
137.40          2.3443E-10
137.60          2.0897E-10
137.80          1.8351E-10
138.00          1.5806E-10
138.20          1.4184E-10
138.40          1.2400E-10
138.60          1.0615E-10
138.80          8.8303E-11
139.00          7.0456E-11
139.20          5.7231E-11
139.40          4.2786E-11
139.60          2.8341E-11
139.80          1.3896E-11
140.00          -5.4928E-13
140.00          NaN
140.20          NaN
140.40          NaN
140.60          NaN
140.80          NaN
141.00          NaN
141.20          NaN
141.40          NaN
141.60          NaN
141.80          NaN
142.00          NaN
142.20          NaN
142.40          NaN
142.60          NaN
142.80          NaN
143.00          NaN
143.20          NaN
143.40          NaN
143.60          NaN
143.80          NaN
144.00          NaN
144.20          NaN
144.40          NaN
144.60          NaN
144.80          NaN
145.00          NaN
145.20          NaN
145.40          NaN
145.60          NaN
145.80          NaN
146.00          NaN
146.20          NaN
146.40          NaN
146.60          NaN
146.80          NaN
147.00          NaN
147.20          NaN
147.40          NaN
147.60          NaN
147.80          NaN
148.00          NaN
148.20          NaN
148.40          NaN
148.60          NaN
148.80          NaN
149.00          NaN
149.20          NaN
149.40          NaN
149.60          NaN
149.80          NaN
150.00          NaN
150.20          NaN
150.40          NaN
150.60          NaN
150.80          NaN
151.00          NaN
151.20          NaN
151.40          NaN
151.60          NaN
151.80          NaN
152.00          NaN
152.20          NaN
152.40          NaN
152.60          NaN
152.80          NaN
153.00          NaN
153.20          NaN
153.40          NaN
153.60          NaN
153.80          NaN
154.00          NaN
154.20          NaN
154.40          NaN
154.60          NaN
154.80          NaN
155.00          NaN
155.20          NaN
155.40          NaN
155.60          NaN
155.80          NaN
156.00          NaN
156.20          NaN
156.40          NaN
156.60          NaN
156.80          NaN
157.00          NaN
157.20          NaN
157.40          NaN
157.60          NaN
157.80          NaN
158.00          NaN
158.20          NaN
158.40          NaN
158.60          NaN
158.80          NaN
159.00          NaN
159.20          NaN
159.40          NaN
159.60          NaN
159.80          NaN
160.00          NaN
